<?xml version="1.0" encoding="UTF-8"?>

<!-- generated on 2024-07-02 22:37:17 by Eclipse SUMO sumo Version 1.20.0
<configuration xmlns:xsi="http://www.w3.org/2001/XMLSchema-instance" xsi:noNamespaceSchemaLocation="http://sumo.dlr.de/xsd/sumoConfiguration.xsd">

    <input>
        <net-file value="/data/hongjian/CoTV-main//scenarios/CoTV/selected1km/selected1km.net.xml"/>
        <route-files value="/tmp/flow/debug/cfg/1km_CoTV_20240702-2237161719959836.510658.rou.xml"/>
        <additional-files value="/tmp/flow/debug/cfg/1km_CoTV_20240702-2237161719959836.510658.add.xml"/>
    </input>

    <output>
        <emission-output value="/data/hongjian/CoTV-main/output/1km_CoTV/1km_CoTV_20240702-2237161719959836.510658-4-emission.xml"/>
        <queue-output value="/data/hongjian/CoTV-main/output/1km_CoTV/1km_CoTV_20240702-2237161719959836.510658-4-queue.xml"/>
        <tripinfo-output value="/data/hongjian/CoTV-main/output/1km_CoTV/1km_CoTV_20240702-2237161719959836.510658-4-tripinfo.xml"/>
    </output>

    <time>
        <begin value="0"/>
        <step-length value="1"/>
    </time>

    <processing>
        <collision.check-junctions value="true"/>
        <time-to-teleport value="-1"/>
        <waiting-time-memory value="15"/>
    </processing>

    <report>
        <no-step-log value="true"/>
    </report>

    <traci_server>
        <remote-port value="34931"/>
        <num-clients value="1"/>
    </traci_server>

    <gui_only>
        <gui-settings-file value="/tmp/flow/debug/cfg/1km_CoTV_20240702-2237161719959836.510658.gui.cfg"/>
    </gui_only>

</configuration>
-->

<queue-export xmlns:xsi="http://www.w3.org/2001/XMLSchema-instance" xsi:noNamespaceSchemaLocation="http://sumo.dlr.de/xsd/queue_file.xsd">
    <data timestep="0.00">
        <lanes>
            <lane id="229823258_0" queueing_time="0.00" queueing_length="0.00" queueing_length_experimental="7.15"/>
        </lanes>
    </data>
</queue-export>
